# vtk DataFile Version 3.0
file is written by INMOST
ASCII
DATASET UNSTRUCTURED_GRID
POINTS 5009 double
28.0586 3.03693 0 
28.0994 4.35961 0 
25.864 5.6863 0 
25.2491 6.83377 0 
23.9238 6.04246 0 
18.8889 6.2277 0 
18.68 4.72895 0 
17.5768 3.23178 0 
16.2084 3.67511 0 
15.3791 3.14747 0 
15.3573 2.44205 0 
11.9129 1.4781 0 
9.11107 2.89398 0 
8.84037 4.65813 0 
6.76481 5.89635 0 
6.34786 8.18986 0 
4.69784 10.0446 0 
6.21021 11.6293 0 
7.26291 19.3875 0 
6.17379 20.9768 0 
8.35604 25.823 0 
6.71419 27.9423 0 
7.51669 30.2337 0 
9.29431 29.8778 0 
10.8962 31.7268 0 
8.67477 36.1399 0 
8.60207 39.0501 0 
7.31538 42.1388 0 
8.81141 43.1943 0 
8.63835 45.4874 0 
11.8389 46.4518 0 
11.7844 44.6882 0 
15.1094 44.4178 0 
15.8169 46.2684 0 
19.9608 48.8184 0 
21.9905 48.7266 0 
23.0006 44.5802 0 
21.6453 42.819 0 
26.8211 41.928 0 
28.0946 41.0439 0 
30.3332 42.4509 0 
31.9482 42.0953 0 
32.2784 39.6256 0 
36.048 40.589 0 
41.935 31.143 0 
43.3171 31.1405 0 
43.8235 29.1114 0 
45.1433 29.7264 0 
48.1368 23.9892 0 
46.6921 21.9635 0 
45.9064 22.8467 0 
45.0662 21.9664 0 
45.1011 20.4672 0 
43.3585 19.3239 0 
42.9084 17.9137 0 
41.6699 17.2986 0 
37.6832 14.572 0 
37.3849 12.8088 0 
38.7101 13.6002 0 
40.8615 12.1854 0 
40.0186 11.2169 0 
38.7342 11.7483 0 
38.3464 9.72072 0 
35.9425 8.22585 0 
34.6013 9.55096 0 
32.6393 9.20169 0 
31.2568 6.55863 0 
31.969 3.29458 0 
29.66 2.24045 0 
37.6441 23.8313 0 
28.8593 2.63869 0 
30.4297 2.59183 0 
31.1993 2.94321 0 
31.7909 4.11059 0 
31.6129 4.9266 0 
31.4349 5.74261 0 
31.7176 7.43965 0 
32.1785 8.32067 0 
33.6203 9.37633 0 
35.2719 8.8884 0 
36.7438 8.72414 0 
37.5451 9.22243 0 
38.4757 10.3966 0 
38.6049 11.0724 0 
39.3764 11.4826 0 
40.4401 11.7012 0 
40.1444 12.657 0 
39.4273 13.1286 0 
38.0475 13.2045 0 
37.5341 13.6904 0 
38.4806 15.1173 0 
39.2779 15.6626 0 
40.0752 16.208 0 
40.8726 16.7533 0 
42.2892 17.6062 0 
43.1335 18.6188 0 
43.9394 19.705 0 
44.5203 20.0861 0 
45.0836 21.2168 0 
45.4863 22.4065 0 
46.2992 22.4051 0 
47.1736 22.6387 0 
47.6552 23.3139 0 
47.7091 24.8088 0 
47.2815 25.6284 0 
46.8539 26.448 0 
46.4262 27.2676 0 
45.9986 28.0872 0 
45.5709 28.9068 0 
44.4834 29.4189 0 
43.6547 29.7878 0 
43.4859 30.4642 0 
42.626 31.1417 0 
41.4444 31.9301 0 
40.9539 32.7173 0 
40.4633 33.5045 0 
39.9727 34.2916 0 
39.4821 35.0788 0 
38.9915 35.866 0 
38.5009 36.6531 0 
38.0103 37.4403 0 
37.5198 38.2275 0 
37.0292 39.0146 0 
36.5386 39.8018 0 
35.1056 40.3481 0 
34.1632 40.1073 0 
33.2208 39.8664 0 
32.1683 40.4488 0 
32.0583 41.2721 0 
31.1407 42.2731 0 
29.587 41.9819 0 
28.8408 41.5129 0 
27.4578 41.486 0 
25.9584 42.0765 0 
25.0958 42.225 0 
24.2332 42.3735 0 
23.3706 42.522 0 
22.508 42.6705 0 
22.0971 43.4061 0 
22.5488 43.9931 0 
22.7985 45.4095 0 
22.5965 46.2388 0 
22.3945 47.0681 0 
22.1925 47.8974 0 
21.3139 48.7572 0 
20.6373 48.7878 0 
19.132 48.3084 0 
18.3032 47.7984 0 
17.4745 47.2884 0 
16.6457 46.7784 0 
15.4632 45.3431 0 
14.2781 44.4854 0 
13.4469 44.553 0 
12.6156 44.6206 0 
11.8116 45.57 0 
11.0387 46.2107 0 
10.2386 45.9696 0 
9.43848 45.7285 0 
8.69604 44.723 0 
8.75372 43.9587 0 
8.0634 42.6666 0 
7.63706 41.3666 0 
7.95873 40.5944 0 
8.2804 39.8223 0 
8.62631 38.08 0 
8.65054 37.11 0 
9.11905 35.2573 0 
9.56332 34.3747 0 
10.0076 33.492 0 
10.4519 32.6094 0 
10.3622 31.1105 0 
9.82826 30.4941 0 
8.4055 30.0557 0 
7.24919 29.4699 0 
6.98169 28.7061 0 
7.26147 27.2359 0 
7.80875 26.5294 0 
7.99233 25.0153 0 
7.62862 24.2076 0 
7.26491 23.3999 0 
6.90121 22.5922 0 
6.5375 21.7845 0 
6.71835 20.1821 0 
7.13132 18.4178 0 
6.99973 17.448 0 
6.86815 16.4782 0 
6.73656 15.5084 0 
6.60497 14.5386 0 
6.47339 13.5688 0 
6.3418 12.599 0 
5.70609 11.101 0 
5.20196 10.5728 0 
5.24785 9.42637 0 
5.79785 8.80811 0 
6.48684 7.42536 0 
6.62582 6.66086 0 
7.45666 5.48361 0 
8.14852 5.07087 0 
8.97572 3.77605 0 
9.81152 2.54001 0 
10.512 2.18604 0 
11.2124 1.83207 0 
12.774 1.71909 0 
13.6351 1.96007 0 
14.4962 2.20106 0 
16.8926 3.45345 0 
18.1284 3.98037 0 
18.7844 5.47833 0 
19.728 6.19683 0 
20.5672 6.16596 0 
21.4063 6.13508 0 
22.2455 6.10421 0 
23.0846 6.07333 0 
24.5864 6.43811 0 
25.5565 6.26004 0 
26.6092 5.24407 0 
27.3543 4.80184 0 
28.079 3.69827 0 
20.2129 6.86974 0 
39.0838 34.1787 0 
23.7026 41.5661 0 
8.87135 25.1088 0 
8.02217 18.7967 0 
11.3683 32.5114 0 
11.7222 31.7376 0 
12.1999 32.4399 0 
12.5589 31.7496 0 
7.5794 14.7688 0 
41.0949 31.1659 0 
12.9981 32.3959 0 
13.3531 31.7236 0 
13.7832 32.3444 0 
14.1271 31.6779 0 
14.5188 32.2866 0 
14.8784 31.6399 0 
15.2795 32.3659 0 
15.6161 31.6109 0 
16.0224 32.1958 0 
16.3399 31.5579 0 
16.735 32.1484 0 
17.0438 31.5163 0 
16.6684 30.9361 0 
17.3667 30.9078 0 
16.9834 30.3285 0 
17.6643 30.2951 0 
17.3138 29.7428 0 
17.9596 29.6943 0 
17.6206 29.1542 0 
18.2537 29.1045 0 
17.9101 28.5671 0 
18.5427 28.5261 0 
18.2033 27.9926 0 
18.8295 27.9496 0 
18.4821 27.4182 0 
19.1129 27.3831 0 
18.7676 26.8574 0 
19.3915 26.8207 0 
19.0515 26.3002 0 
19.671 26.2694 0 
20.0115 26.7651 0 
20.2812 26.2268 0 
19.9549 25.7312 0 
20.5518 25.7048 0 
20.877 26.188 0 
21.146 25.6705 0 
21.4587 26.1543 0 
21.7242 25.6533 0 
22.0268 26.1185 0 
22.2752 25.62 0 
21.9831 25.1651 0 
22.5226 25.1387 0 
22.8088 25.5834 0 
23.049 25.1205 0 
23.3243 25.5502 0 
23.5538 25.1058 0 
23.8226 25.5192 0 
24.0457 25.0859 0 
24.3072 25.489 0 
24.5208 25.0697 0 
24.7743 25.4587 0 
24.9815 25.057 0 
25.2245 25.4326 0 
25.4276 25.056 0 
25.6653 25.4092 0 
25.8624 25.0482 0 
26.0778 25.3829 0 
26.2787 25.0231 0 
26.5111 25.4218 0 
26.6839 25.0134 0 
26.8981 25.3358 0 
27.0776 24.9866 0 
27.2813 25.3014 0 
27.4543 24.9746 0 
27.6541 25.278 0 
27.8229 24.9639 0 
28.0168 25.2629 0 
28.1803 24.9542 0 
28.3683 25.2426 0 
28.5278 24.9465 0 
28.7097 25.2299 0 
28.8667 24.9332 0 
29.05 25.2246 0 
29.1988 24.9203 0 
29.3755 25.2056 0 
29.512 24.92 0 
29.6779 25.1787 0 
29.8055 24.9148 0 
29.9739 25.1573 0 
30.103 24.8705 0 
30.27 25.1456 0 
30.4002 24.9026 0 
30.5597 25.127 0 
30.6823 24.8844 0 
30.8298 25.1104 0 
30.9542 24.8799 0 
31.0975 25.0948 0 
31.2195 24.8748 0 
31.36 25.0861 0 
31.477 24.8609 0 
31.6128 25.0695 0 
31.7282 24.8519 0 
31.8604 25.0543 0 
31.9745 24.8451 0 
32.1027 25.0472 0 
32.2129 24.8378 0 
32.344 25.0369 0 
26.4632 24.6691 0 
28.6904 24.6371 0 
30.5427 24.6184 0 
32.0895 24.6432 0 
32.3211 24.6294 0 
23.8026 24.6473 0 
31.4733 25.2991 0 
29.8432 25.4091 0 
27.8198 25.6017 0 
25.8865 25.7218 0 
32.1919 24.4282 0 
32.4363 24.4146 0 
32.2995 24.2074 0 
32.5647 24.1891 0 
32.4124 23.9698 0 
32.6928 23.9506 0 
18.3615 30.2531 0 
32.5226 23.7151 0 
32.8117 23.7038 0 
32.9718 23.9381 0 
33.0893 23.6957 0 
33.2296 23.9239 0 
33.3479 23.6944 0 
33.4829 23.9088 0 
33.5963 23.6905 0 
33.7238 23.888 0 
33.8364 23.6835 0 
33.9488 23.8785 0 
32.6551 23.4524 0 
24.1339 25.918 0 
33.7131 23.4787 0 
33.9595 23.4737 0 
33.8303 23.2572 0 
34.0824 23.2497 0 
33.9531 23.0232 0 
34.2202 23.0156 0 
34.084 22.776 0 
34.3575 22.7807 0 
34.2256 22.5211 0 
34.557 22.5559 0 
34.4592 23.0166 0 
34.3764 22.2462 0 
34.7122 22.2418 0 
34.5338 21.948 0 
34.872 21.944 0 
16.4264 32.7871 0 
17.1521 32.7204 0 
16.8359 33.3765 0 
34.6983 21.6305 0 
34.3305 21.6266 0 
17.5645 33.3131 0 
34.5073 21.3068 0 
34.1027 21.294 0 
17.2249 33.9873 0 
33.8469 24.0706 0 
34.0543 24.0608 0 
33.9578 24.2388 0 
34.1592 24.2323 0 
34.0649 24.4085 0 
34.2667 24.4024 0 
34.1712 24.5812 0 
34.3745 24.5735 0 
34.279 24.7564 0 
18.4183 26.3316 0 
34.2921 20.9474 0 
33.8612 20.9519 0 
35.0431 22.233 0 
35.2053 21.9546 0 
17.9804 33.9137 0 
34.09 20.546 0 
33.614 20.5674 0 
36.828 14.4377 0 
17.6378 34.5894 0 
35.364 22.2314 0 
35.5251 21.961 0 
40.873 17.7191 0 
15.4508 3.97223 0 
14.6517 43.7237 0 
18.3966 34.5162 0 
34.5934 20.5678 0 
35.7092 22.2677 0 
35.8407 21.9741 0 
44.8963 22.5466 0 
17.264 28.7017 0 
18.0507 35.1972 0 
36.0087 22.2263 0 
36.1415 21.9755 0 
33.8529 20.1297 0 
33.3578 20.1513 0 
32.3463 23.4702 0 
36.2744 22.2356 0 
36.1552 22.4546 0 
36.4525 21.9976 0 
17.3124 35.2509 0 
17.7207 35.8654 0 
33.6001 19.707 0 
33.0909 19.7195 0 
18.7883 35.144 0 
36.3908 22.471 0 
36.2709 22.6688 0 
36.4906 22.6751 0 
36.3833 22.8517 0 
36.5835 22.8558 0 
36.4859 23.014 0 
33.3424 19.2752 0 
32.8264 19.2938 0 
32.5821 19.7318 0 
32.3189 19.3054 0 
32.085 19.7431 0 
31.821 19.3212 0 
32.0567 18.8759 0 
31.5533 18.9026 0 
31.3236 19.3395 0 
31.0565 18.9299 0 
30.8299 19.3597 0 
30.5665 18.9504 0 
30.3472 19.3828 0 
30.0779 18.975 0 
30.3026 18.5316 0 
29.803 18.5593 0 
29.5824 19.0068 0 
29.3013 18.5911 0 
29.0759 19.0496 0 
28.7928 18.628 0 
29.014 18.1674 0 
28.5018 18.1995 0 
28.2796 18.6698 0 
27.9801 18.2412 0 
28.206 17.7607 0 
27.6724 17.8044 0 
27.9009 17.3154 0 
27.3576 17.3571 0 
27.5877 16.8603 0 
27.0365 16.9065 0 
26.8143 17.4064 0 
26.4773 16.9535 0 
26.2493 17.4642 0 
25.9083 17.0001 0 
25.6644 17.5216 0 
25.2736 16.9209 0 
27.2718 16.3985 0 
25.0692 17.559 0 
24.671 17.06 0 
24.4726 17.6263 0 
24.1064 17.1438 0 
23.8811 17.6947 0 
23.5221 17.1933 0 
23.2596 17.7502 0 
22.9007 17.2428 0 
22.6301 17.8179 0 
22.2608 17.3085 0 
21.9847 17.885 0 
21.6093 17.3643 0 
21.3284 17.9626 0 
20.9448 17.4058 0 
20.6597 18.0281 0 
20.2689 17.4586 0 
19.9814 18.0959 0 
19.5809 17.5145 0 
19.2908 18.1721 0 
23.7716 16.7381 0 
27.8447 16.3728 0 
27.5135 15.8849 0 
18.88 17.5728 0 
18.5824 18.2286 0 
18.1646 17.629 0 
17.8607 18.2861 0 
18.4409 16.9935 0 
21.276 16.8524 0 
17.7363 17.0321 0 
18.0213 16.3814 0 
24.8067 18.1185 0 
17.2797 16.4377 0 
17.6542 15.7181 0 
16.8456 15.8108 0 
17.2304 15.0759 0 
28.1083 15.8597 0 
27.7593 15.3525 0 
19.1492 34.459 0 
16.4213 15.1601 0 
16.7615 14.4491 0 
17.5598 14.3796 0 
19.5295 35.0903 0 
19.8563 34.4236 0 
20.2605 35.0369 0 
20.5794 34.3762 0 
20.9874 34.9795 0 
21.3009 34.3303 0 
21.7067 34.924 0 
22.0313 34.2859 0 
22.4154 34.8676 0 
22.7431 34.2408 0 
23.1115 34.8138 0 
23.4142 34.1921 0 
23.795 34.7594 0 
24.084 34.1455 0 
23.7183 33.5955 0 
24.3724 33.5539 0 
24.7398 34.0925 0 
25.02 33.5087 0 
25.3858 34.0421 0 
[...]
CELL_DATA 9799
SCALARS Vector_to_center double 3
LOOKUP_TABLE default
-8.13573 0.45321 -5.45353e-312 
-2.83791 11.6501 -5.45353e-312 
-5.40159 0.0801552 -5.45353e-312 
14.6668 -3.25556 -5.45353e-312 
8.45968 0.696285 -5.45353e-312 
-7.8148 0.36486 -5.45353e-312 
2.4554 2.80793 -5.45353e-312 
-0.17176 -0.0447072 -5.45353e-312 
-4.26377 -6.36818 -5.45353e-312 
1.87192 0.951592 -5.45353e-312 
3.50976 -6.40421 -5.45353e-312 
22.0744 -0.891788 -5.45353e-312 
-0.0400932 -0.774611 -5.45353e-312 
11.9256 -5.59261 -5.45353e-312 
2.63678 2.66692 -5.45353e-312 
25.6222 -1.81259 -5.45353e-312 
0.135508 -0.0101982 -5.45353e-312 
0.38814 -0.472023 -5.45353e-312 
19.1889 -6.81054 -5.45353e-312 
6.62368 -17.2198 -5.45353e-312 
0.492397 -0.0851709 -5.45353e-312 
0.231291 0.0399824 -5.45353e-312 
14.0021 0.402555 -5.45353e-312 
21.9647 20.233 -5.45353e-312 
25.9599 -2.09048 -5.45353e-312 
3.04346 0.120269 -5.45353e-312 
5.32617 -9.42062 -5.45353e-312 
8.14262 3.65073 -5.45353e-312 
27.7918 -20.6946 -5.45353e-312 
16.2811 -24.1014 -5.45353e-312 
16.8027 -9.34649 -5.45353e-312 
-0.00257849 -0.00560566 -5.45353e-312 
1.02064 -2.77108 -5.45353e-312 
0.799966 -0.669322 -5.45353e-312 
10.1465 11.5281 -5.45353e-312 
-0.134789 -0.0814392 -5.45353e-312 
-0.145771 -0.0575396 -5.45353e-312 
-0.320298 3.26909 -5.45353e-312 
13.5253 7.60235 -5.45353e-312 
12.8326 5.02289 -5.45353e-312 
1.3429 -1.21 -5.45353e-312 
1.71056 -3.88673 -5.45353e-312 
26.683 -10.0241 -5.45353e-312 
11.4821 -16.9465 -5.45353e-312 
17.1098 -9.63462 -5.45353e-312 
16.6196 -23.892 -5.45353e-312 
0.175741 -0.179978 -5.45353e-312 
0.579499 0.351609 -5.45353e-312 
2.66507 -12.9803 -5.45353e-312 
7.55029 2.52048 -5.45353e-312 
16.8797 4.11849 -5.45353e-312 
10.5121 11.6562 -5.45353e-312 
4.36823 -3.31049 -5.45353e-312 
3.04069 -12.7508 -5.45353e-312 
-1.21359 -1.04141 -5.45353e-312 
19.4887 -7.404 -5.45353e-312 
24.1147 -10.1133 -5.45353e-312 
3.57426 -6.672 -5.45353e-312 
7.56869 2.26495 -5.45353e-312 
0.527378 -1.61254 -5.45353e-312 
12.8212 5.3608 -5.45353e-312 
-0.211468 1.1531 -5.45353e-312 
5.56438 -2.78351 -5.45353e-312 
19.4444 -7.76526 -5.45353e-312 
6.42863 -11.1924 -5.45353e-312 
5.03368 -9.16621 -5.45353e-312 
0.00294298 0.00534093 -5.45353e-312 
0.921296 -0.471437 -5.45353e-312 
13.2234 -4.12648 -5.45353e-312 
6.10334 -11.2749 -5.45353e-312 
2.08379 2.29116 -5.45353e-312 
7.32592 -7.46789 -5.45353e-312 
0.318294 -0.482563 -5.45353e-312 
14.0868 7.3041 -5.45353e-312 
1.74271 1.15025 -5.45353e-312 
13.7383 7.34147 -5.45353e-312 
24.7767 -1.77057 -5.45353e-312 
1.64054 0.925292 -5.45353e-312 
0.358464 -0.154878 -5.45353e-312 
8.31826 3.80838 -5.45353e-312 
0.527371 -0.100641 -5.45353e-312 
4.40007 -2.70662 -5.45353e-312 
6.76693 1.86361 -5.45353e-312 
0.427368 -1.34924 -5.45353e-312 
12.5527 7.27822 -5.45353e-312 
0.000847009 -0.0127383 -5.45353e-312 
5.26315 11.6656 -5.45353e-312 
-9.07755 1.49553 -5.45353e-312 
-1.37993 0.595149 -5.45353e-312 
-0.142772 -0.108619 -5.45353e-312 
0.737695 0.394061 -5.45353e-312 
-0.118553 -0.12525 -5.45353e-312 
-8.17445 0.75471 -5.45353e-312 
19.9643 8.57103 -5.45353e-312 
12.7428 7.02366 -5.45353e-312 
0.009233 -0.0934875 -5.45353e-312 
-2.36697 -8.3454 -5.45353e-312 
7.77223 -17.7523 -5.45353e-312 
7.57383 -7.30218 -5.45353e-312 
1.98261 0.900588 -5.45353e-312 
18.0683 13.1918 -5.45353e-312 
8.41618 0.495548 -5.45353e-312 
-0.00330408 -0.0015111 -5.45353e-312 
11.825 1.15498 -5.45353e-312 
-0.319746 0.0424652 -5.45353e-312 
12.0631 1.29573 -5.45353e-312 
20.0599 1.29977 -5.45353e-312 
2.9327 0.120339 -5.45353e-312 
0.748922 0.0158839 -5.45353e-312 
6.93602 -17.5426 -5.45353e-312 
24.8028 11.6088 -5.45353e-312 
0.743611 -0.680777 -5.45353e-312 
-3.14667 -6.16744 -5.45353e-312 
3.86387 -4.82295 -5.45353e-312 
-4.98349 -2.53227 -5.45353e-312 
-0.701093 -0.47457 -5.45353e-312 
14.3517 7.51731 -5.45353e-312 
13.3657 9.41861 -5.45353e-312 
26.5925 -10.4778 -5.45353e-312 
26.6675 10.5129 -5.45353e-312 
13.4761 -4.1251 -5.45353e-312 
0.215801 0.0460875 -5.45353e-312 
-0.505614 -7.38246 -5.45353e-312 
0.0178393 0.0689566 -5.45353e-312 
24.7812 12.0512 -5.45353e-312 
28.5217 11.3206 -5.45353e-312 
9.7979 11.7883 -5.45353e-312 
4.22686 -3.46285 -5.45353e-312 
1.84015 -4.0281 -5.45353e-312 
24.3619 10.9519 -5.45353e-312 
-0.105633 3.14965 -5.45353e-312 
9.70374 -7.67429 -5.45353e-312 
26.6044 3.57874 -5.45353e-312 
17.1861 14.803 -5.45353e-312 
-0.0188922 0.00608923 -5.45353e-312 
-0.155581 -0.52771 -5.45353e-312 
3.08309 0.0219272 -5.45353e-312 
4.06487 -4.84882 -5.45353e-312 
0.0249227 -0.0162558 -5.45353e-312 
1.87132 1.10094 -5.45353e-312 
-2.49938 11.7469 -5.45353e-312 
5.15768 2.86379 -5.45353e-312 
5.5967 -2.9474 -5.45353e-312 
0.00118727 -0.0469841 -5.45353e-312 
6.48279 -5.98938 -5.45353e-312 
6.8952 2.00533 -5.45353e-312 
-1.10141 -1.08595 -5.45353e-312 
1.15186 -2.68387 -5.45353e-312 
-0.0530877 -0.0535605 -5.45353e-312 
0.334178 -0.167426 -5.45353e-312 
27.6255 15.1044 -5.45353e-312 
-0.396568 -1.79511 -5.45353e-312 
4.21348 -1.94682 -5.45353e-312 
0.421917 -1.44761 -5.45353e-312 
12.9377 -7.35914 -5.45353e-312 
0.0103975 -0.0352388 -5.45353e-312 
21.4619 17.1079 -5.45353e-312 
28.489 19.6025 -5.45353e-312 
18.9281 -9.11723 -5.45353e-312 
21.8602 4.70563 -5.45353e-312 
20.4443 1.41843 -5.45353e-312 
0.361143 -0.502112 -5.45353e-312 
12.3276 -2.13251 -5.45353e-312 
12.6453 -0.690981 -5.45353e-312 
3.74826 -9.64317 -5.45353e-312 
0.222698 0.319712 -5.45353e-312 
0.0309581 -0.0532036 -5.45353e-312 
6.47402 -15.7729 -5.45353e-312 
-3.18176 5.60889 -5.45353e-312 
12.4219 -6.30932 -5.45353e-312 
-0.314199 1.08096 -5.45353e-312 
3.97676 -9.333 -5.45353e-312 
4.92657 2.8508 -5.45353e-312 
11.3259 -6.08932 -5.45353e-312 
1.60109 -0.295293 -5.45353e-312 
6.54205 -3.69147 -5.45353e-312 
11.5978 -6.0453 -5.45353e-312 
-2.01823 -8.5753 -5.45353e-312 
0.932992 -0.518938 -5.45353e-312 
6.50096 -6.27138 -5.45353e-312 
-0.393522 -0.0551079 -5.45353e-312 
1.45413 0.179209 -5.45353e-312 
1.09073 0.576342 -5.45353e-312 
26.879 -11.3048 -5.45353e-312 
-6.1823 2.45467 -5.45353e-312 
0.191079 -0.196034 -5.45353e-312 
4.19167 -0.55804 -5.45353e-312 
16.4645 -21.2931 -5.45353e-312 
0.287178 -0.512671 -5.45353e-312 
0.20448 0.285009 -5.45353e-312 
22.5743 3.70151 -5.45353e-312 
4.88152 11.5105 -5.45353e-312 
24.3951 -10.4162 -5.45353e-312 
7.02823 -0.611581 -5.45353e-312 
17.9766 -24.4956 -5.45353e-312 
-0.267743 0.061001 -5.45353e-312 
-2.92168 1.53676 -5.45353e-312 
3.24808 9.88602 -5.45353e-312 
0.00601804 -0.0299004 -5.45353e-312 
7.8604 3.65706 -5.45353e-312 
17.7462 13.4652 -5.45353e-312 
1.21777 9.02642 -5.45353e-312 
0.871352 0.772346 -5.45353e-312 
13.1917 -7.18661 -5.45353e-312 
7.69972 3.83382 -5.45353e-312 
27.0354 3.33592 -5.45353e-312 
27.975 15.3406 -5.45353e-312 
-7.85223 -3.11845 -5.45353e-312 
25.9846 -7.44108 -5.45353e-312 
27.3232 -20.7228 -5.45353e-312 
-1.56743 -7.76626 -5.45353e-312 
1.16754 0.622577 -5.45353e-312 
-0.526288 -0.859655 -5.45353e-312 
2.21752 -7.32777 -5.45353e-312 
0.125622 -0.0179017 -5.45353e-312 
15.6882 -17.3694 -5.45353e-312 
19.093 -21.4584 -5.45353e-312 
12.5395 12.6607 -5.45353e-312 
22.77 13.7619 -5.45353e-312 
14.3112 0.489741 -5.45353e-312 
9.0875 0.702194 -5.45353e-312 
1.51935 0.20078 -5.45353e-312 
-4.46596 5.82673 -5.45353e-312 
15.6456 -17.7834 -5.45353e-312 
17.8968 -8.83678 -5.45353e-312 
7.1683 -0.634181 -5.45353e-312 
18.5882 -1.02478 -5.45353e-312 
-2.31603 -7.91925 -5.45353e-312 
23.9612 18.0413 -5.45353e-312 
-0.517968 6.30662 -5.45353e-312 
21.0571 17.0221 -5.45353e-312 
-3.58454 5.78846 -5.45353e-312 
-0.0260653 -0.0506579 -5.45353e-312 
-3.7746 6.16249 -5.45353e-312 
0.312932 0.0297172 -5.45353e-312 
0.0499778 0.0717117 -5.45353e-312 
-1.07456 -1.89309 -5.45353e-312 
26.8688 9.29932 -5.45353e-312 
27.0564 -10.8884 -5.45353e-312 
1.50437 -13.8868 -5.45353e-312 
0.877302 0.865466 -5.45353e-312 
24.8327 -1.3182 -5.45353e-312 
19.2689 -10.2575 -5.45353e-312 
17.9049 -23.5524 -5.45353e-312 
0.0884566 0.0101388 -5.45353e-312 
-0.509569 -1.86993 -5.45353e-312 
0.194042 -4.91622 -5.45353e-312 
-0.269977 7.82862 -5.45353e-312 
-5.56922 0.282819 -5.45353e-312 
0.426291 -1.66414 -5.45353e-312 
-0.451286 -0.89687 -5.45353e-312 
24.3662 11.4072 -5.45353e-312 
0.478341 -0.0524865 -5.45353e-312 
0.509665 -0.761276 -5.45353e-312 
0.422879 -0.0426636 -5.45353e-312 
4.26997 -0.644534 -5.45353e-312 
19.3151 -8.9402 -5.45353e-312 
0.00139212 -0.0096436 -5.45353e-312 
2.78728 3.45647 -5.45353e-312 
21.6609 -1.02831 -5.45353e-312 
6.83381 -16.7747 -5.45353e-312 
22.0107 7.55566 -5.45353e-312 
-4.57593 -4.08068 -5.45353e-312 
0.0895712 0.0217165 -5.45353e-312 
16.9857 -24.169 -5.45353e-312 
-0.00180948 0.00145979 -5.45353e-312 
9.49044 -7.46455 -5.45353e-312 
29.3652 -4.91622 -5.45353e-312 
-6.50551 2.44358 -5.45353e-312 
-0.576075 -4.99237 -5.45353e-312 
-4.63171 -6.17401 -5.45353e-312 
-2.51661 -0.826808 -5.45353e-312 
-4.29246 -4.16473 -5.45353e-312 
8.87363 7.62323 -5.45353e-312 
1.28794 -1.29515 -5.45353e-312 
0.353466 0.20903 -5.45353e-312 
20.91 2.02247 -5.45353e-312 
0.609595 0.382242 -5.45353e-312 
28.2808 19.1684 -5.45353e-312 
0.0378481 -0.0560664 -5.45353e-312 
14.3845 -3.33398 -5.45353e-312 
-6.06033 1.35831 -5.45353e-312 
-1.68935 0.311878 -5.45353e-312 
-0.0175808 -0.0522234 -5.45353e-312 
0.133051 0.00369145 -5.45353e-312 
12.4947 -2.30076 -5.45353e-312 
14.9266 -3.48993 -5.45353e-312 
-1.96162 5.94285 -5.45353e-312 
6.75345 -7.4315 -5.45353e-312 
-1.90164 0.560435 -5.45353e-312 
26.9481 9.74823 -5.45353e-312 
-1.75148 0.163726 -5.45353e-312 
5.26194 -4.56688 -5.45353e-312 
0.541033 -1.23646 -5.45353e-312 
11.119 -3.71151 -5.45353e-312 
4.34563 -1.98882 -5.45353e-312 
17.5905 4.89751 -5.45353e-312 
1.31078 -1.40175 -5.45353e-312 
0.0163716 -0.103598 -5.45353e-312 
-8.39672 -2.07402 -5.45353e-312 
0.00921339 -0.00670451 -5.45353e-312 
4.68895 -5.24106 -5.45353e-312 
23.4136 4.5472 -5.45353e-312 
5.74453 0.414553 -5.45353e-312 
21.4835 4.46628 -5.45353e-312 
9.41405 11.5844 -5.45353e-312 
-0.218491 -0.552705 -5.45353e-312 
2.90104 1.21797 -5.45353e-312 
0.0205208 -0.0121819 -5.45353e-312 
6.30466 12.5914 -5.45353e-312 
1.62248 1.05422 -5.45353e-312 
0.500889 -0.209315 -5.45353e-312 
-8.78693 -2.34064 -5.45353e-312 
-1.24417 -7.46457 -5.45353e-312 
-3.92908 -6.15716 -5.45353e-312 
5.9371 12.4572 -5.45353e-312 
5.00613 -4.9285 -5.45353e-312 
0.364416 -0.256782 -5.45353e-312 
-2.59803 -0.989598 -5.45353e-312 
0.204683 0.101854 -5.45353e-312 
8.55207 7.79128 -5.45353e-312 
-1.44863 -3.0277 -5.45353e-312 
-0.108383 -0.798635 -5.45353e-312 
1.03435 -13.7372 -5.45353e-312 
-1.87617 6.71712 -5.45353e-312 
8.88732 0.611136 -5.45353e-312 
10.6405 -7.26025 -5.45353e-312 
-2.06165 0.502176 -5.45353e-312 
2.12234 0.98196 -5.45353e-312 
0.22962 -0.113707 -5.45353e-312 
0.0824518 0.422396 -5.45353e-312 
-0.238213 -0.0325275 -5.45353e-312 
20.1894 11.9694 -5.45353e-312 
6.55584 -3.92518 -5.45353e-312 
10.7028 16.9978 -5.45353e-312 
-0.021788 3.65456 -5.45353e-312 
18.5636 -0.678861 -5.45353e-312 
-2.48777 -1.34404 -5.45353e-312 
27.948 -18.6431 -5.45353e-312 
23.6171 18.251 -5.45353e-312 
12.3908 -16.3441 -5.45353e-312 
11.6552 -5.70704 -5.45353e-312 
15.5189 -22.2529 -5.45353e-312 
-0.204887 -0.0629512 -5.45353e-312 
12.7004 -6.12971 -5.45353e-312 
17.3798 2.83101 -5.45353e-312 
6.77391 -16.0461 -5.45353e-312 
0.315078 0.259538 -5.45353e-312 
7.03375 -7.27973 -5.45353e-312 
11.3008 0.353505 -5.45353e-312 
-0.00486874 -7.90586e-05 -5.45353e-312 
0.0411913 -0.108129 -5.45353e-312 
2.45999 -1.75821 -5.45353e-312 
-8.99495 -0.204412 -5.45353e-312 
8.56812 6.8236 -5.45353e-312 
-4.69291 -2.41797 -5.45353e-312 
-0.171698 -0.258526 -5.45353e-312 
29.0206 17.1094 -5.45353e-312 
20.5145 1.87405 -5.45353e-312 
-0.498136 13.7335 -5.45353e-312 
-3.09399 1.74229 -5.45353e-312 
7.2703 16.2937 -5.45353e-312 
0.0535337 -0.0549795 -5.45353e-312 
11.544 13.5216 -5.45353e-312 
13.9158 0.145377 -5.45353e-312 
7.47076 -17.3996 -5.45353e-312 
-2.85115 5.77542 -5.45353e-312 
11.5169 12.6877 -5.45353e-312 
0.280537 0.271019 -5.45353e-312 
0.00501826 0.061005 -5.45353e-312 
9.63073 -3.94978 -5.45353e-312 
29.3892 11.291 -5.45353e-312 
0.0132502 -0.0215238 -5.45353e-312 
1.64325 -0.34544 -5.45353e-312 
0.802477 -10.7255 -5.45353e-312 
0.488117 -0.024167 -5.45353e-312 
4.80018 -4.97757 -5.45353e-312 
4.55387 -3.33127 -5.45353e-312 
-1.58715 -1.07679 -5.45353e-312 
0.131754 0.431262 -5.45353e-312 
23.3878 -6.78116 -5.45353e-312 
0.0720474 -0.164023 -5.45353e-312 
0.0548773 -0.133973 -5.45353e-312 
2.85047 -0.925269 -5.45353e-312 
-1.9698 11.1555 -5.45353e-312 
0.262675 0.244769 -5.45353e-312 
5.71914 -16.2089 -5.45353e-312 
23.02 10.3482 -5.45353e-312 
0.110458 0.0546425 -5.45353e-312 
22.406 -1.17124 -5.45353e-312 
23.7413 -10.15 -5.45353e-312 
0.549363 -9.92814 -5.45353e-312 
6.77361 10.9509 -5.45353e-312 
0.505503 1.57886 -5.45353e-312 
6.57799 -15.4231 -5.45353e-312 
4.37274 -2.54526 -5.45353e-312 
-0.132883 6.2307 -5.45353e-312 
0.181047 -9.89527 -5.45353e-312 
0.135642 -0.102174 -5.45353e-312 
21.1326 6.78818 -5.45353e-312 
28.5056 11.7582 -5.45353e-312 
0.775838 0.43234 -5.45353e-312 
21.7633 -21.7893 -5.45353e-312 
2.37097 -1.67556 -5.45353e-312 
23.0265 10.8137 -5.45353e-312 
20.0926 -9.04752 -5.45353e-312 
4.46583 -5.22864 -5.45353e-312 
2.49378 -7.51579 -5.45353e-312 
-5.01618 3.05394 -5.45353e-312 
-0.057931 0.210985 -5.45353e-312 
11.2052 13.4058 -5.45353e-312 
26.4436 -20.9282 -5.45353e-312 
-1.5059 0.509263 -5.45353e-312 
4.93585 -0.282103 -5.45353e-312 
-7.69469 -2.69828 -5.45353e-312 
7.16747 19.9148 -5.45353e-312 
-1.27052 -4.42965 -5.45353e-312 
7.57994 20.3034 -5.45353e-312 
21.871 -10.5502 -5.45353e-312 
16.0726 -21.5382 -5.45353e-312 
2.07608 0.7061 -5.45353e-312 
7.30294 -3.63604 -5.45353e-312 
19.9741 -21.7748 -5.45353e-312 
7.78349 6.90052 -5.45353e-312 
-0.584601 -7.02311 -5.45353e-312 
26.3182 -20.561 -5.45353e-312 
2.23246 2.40981 -5.45353e-312 
0.0180954 -0.231403 -5.45353e-312 
5.29239 3.35729 -5.45353e-312 
12.1756 12.4852 -5.45353e-312 
13.1119 10.5044 -5.45353e-312 
5.94492 -11.6793 -5.45353e-312 
8.53223 7.12712 -5.45353e-312 
6.18796 -12.0002 -5.45353e-312 
16.4461 -9.39983 -5.45353e-312 
13.5979 -13.7601 -5.45353e-312 
21.3329 -21.9938 -5.45353e-312 
0.561649 -0.0761965 -5.45353e-312 
6.80092 0.547965 -5.45353e-312 
0.22401 0.101347 -5.45353e-312 
0.00789121 -0.00254428 -5.45353e-312 
0.0315414 -0.00594081 -5.45353e-312 
-2.69347 -5.47142 -5.45353e-312 
0.153938 -0.181186 -5.45353e-312 
23.4562 10.0818 -5.45353e-312 
29.6146 9.45675 -5.45353e-312 
11.3071 -3.86881 -5.45353e-312 
22.0403 8.03703 -5.45353e-312 
2.1388 1.1372 -5.45353e-312 
23.6945 -7.01311 -5.45353e-312 
29.7989 10.9538 -5.45353e-312 
5.89291 0.46555 -5.45353e-312 
-5.93495 1.14836 -5.45353e-312 
10.5864 -7.6021 -5.45353e-312 
4.56275 -2.80486 -5.45353e-312 
-1.28708 -9.83478 -5.45353e-312 
6.95937 0.652661 -5.45353e-312 
0.458154 -0.740279 -5.45353e-312 
0.127449 -0.150263 -5.45353e-312 
17.2486 4.73892 -5.45353e-312 
-9.00291 1.16639 -5.45353e-312 
-3.24776 -5.76392 -5.45353e-312 
19.5786 8.32416 -5.45353e-312 
11.8547 12.7743 -5.45353e-312 
2.85353 -14.9481 -5.45353e-312 
17.2229 4.29485 -5.45353e-312 
30.0444 9.63343 -5.45353e-312 
15.3687 7.26343 -5.45353e-312 
4.93719 -0.433601 -5.45353e-312 
16.578 4.31889 -5.45353e-312 
0.213103 -0.0213869 -5.45353e-312 
19.9957 9.01721 -5.45353e-312 
2.28544 1.23286 -5.45353e-312 
9.53665 -2.57021 -5.45353e-312 
21.7181 16.844 -5.45353e-312 
0.0141139 -1.31039 -5.45353e-312 
20.134 18.594 -5.45353e-312 
0.469582 -0.221953 -5.45353e-312 
1.44511 -1.19943 -5.45353e-312 
22.1607 -8.96467 -5.45353e-312 
3.64153 1.9523 -5.45353e-312 
5.313 -9.81365 -5.45353e-312 
-0.567051 12.5932 -5.45353e-312 
1.65866 -1.12687 -5.45353e-312 
27.2372 8.513 -5.45353e-312 
13.0309 9.24874 -5.45353e-312 
-0.00288824 -0.0136613 -5.45353e-312 
0.596605 -0.805971 -5.45353e-312 
3.28278 -15.1822 -5.45353e-312 
0.250405 -0.108449 -5.45353e-312 
5.371 12.0383 -5.45353e-312 
11.5386 -16.5019 -5.45353e-312 
-1.63584 0.00530255 -5.45353e-312 
6.25028 -0.433108 -5.45353e-312 
1.58082 -1.06317 -5.45353e-312 
-0.587331 -5.31464 -5.45353e-312 
-0.374851 0.0813678 -5.45353e-312 
22.1347 9.47732 -5.45353e-312 
-0.0275903 -0.712922 -5.45353e-312 
19.3111 -16.1744 -5.45353e-312 
22.8018 14.215 -5.45353e-312 
17.8612 -22.1802 -5.45353e-312 
0.00156352 0.00161816 -5.45353e-312 
0.00418801 -0.019739 -5.45353e-312 
0.0539404 -0.0645954 -5.45353e-312 
9.45658 -4.1225 -5.45353e-312 
-1.6896 -9.81386 -5.45353e-312 
21.506 14.9731 -5.45353e-312 
18.945 -16.3798 -5.45353e-312 
29.2853 17.4637 -5.45353e-312 
22.4711 8.21724 -5.45353e-312 
2.21574 0.902911 -5.45353e-312 
5.8232 -0.510318 -5.45353e-312 
12.861 -0.544525 -5.45353e-312 
20.0335 -17.2065 -5.45353e-312 
1.40501 -1.44807 -5.45353e-312 
0.011451 -0.261465 -5.45353e-312 
2.76019 3.19514 -5.45353e-312 
-2.13577 7.14819 -5.45353e-312 
13.5456 11.917 -5.45353e-312 
13.4756 10.6536 -5.45353e-312 
4.00035 11.5167 -5.45353e-312 
17.3008 16.0907 -5.45353e-312 
-0.0411246 -5.05179 -5.45353e-312 
28.6067 7.63053 -5.45353e-312 
3.49826 2.07499 -5.45353e-312 
10.3059 16.8285 -5.45353e-312 
7.32466 19.4639 -5.45353e-312 
-5.90388 1.61428 -5.45353e-312 
12.1779 -5.78447 -5.45353e-312 
9.74859 -2.46572 -5.45353e-312 
29.2797 18.3163 -5.45353e-312 
-1.08178 -1.60688 -5.45353e-312 
8.41112 -1.49621 -5.45353e-312 
0.838895 8.90126 -5.45353e-312 
0.00912288 -0.0434906 -5.45353e-312 
-0.386707 -0.113196 -5.45353e-312 
7.68562 16.1367 -5.45353e-312 
21.6075 7.40554 -5.45353e-312 
-0.28819 -6.50175 -5.45353e-312 
18.9045 -6.57862 -5.45353e-312 
6.40397 11.0291 -5.45353e-312 
-0.323897 -0.186393 -5.45353e-312 
7.34229 -3.41982 -5.45353e-312 
12.3653 3.97548 -5.45353e-312 
-0.205995 -0.192166 -5.45353e-312 
16.6153 -4.594 -5.45353e-312 
17.3886 -16.2886 -5.45353e-312 
20.4176 -21.9361 -5.45353e-312 
-0.14601 0.103512 -5.45353e-312 
-4.26199 5.50013 -5.45353e-312 
8.01056 20.1892 -5.45353e-312 
0.0961461 0.00428129 -5.45353e-312 
23.4391 9.60299 -5.45353e-312 
0.0433821 -0.0810668 -5.45353e-312 
1.07682 1.68831 -5.45353e-312 
1.05034 -0.0120045 -5.45353e-312 
5.06069 -4.65309 -5.45353e-312 
31.14 11.7572 -5.45353e-312 
25.2861 21.6137 -5.45353e-312 
17.0734 -0.48845 -5.45353e-312 
21.0738 3.78929 -5.45353e-312 
-4.53738 3.24892 -5.45353e-312 
12.6093 3.87489 -5.45353e-312 
1.08925 -0.152378 -5.45353e-312 
-1.25823 -3.0977 -5.45353e-312 
25.4563 22.0216 -5.45353e-312 
4.78681 -10.7402 -5.45353e-312 
0.442265 -0.0594877 -5.45353e-312 
-0.545877 0.25815 -5.45353e-312 
16.5823 -4.90099 -5.45353e-312 
-1.20867 -1.54927 -5.45353e-312 
7.83593 7.19145 -5.45353e-312 
12.257 4.25895 -5.45353e-312 
22.509 -8.99094 -5.45353e-312 
-9.12818 -0.582869 -5.45353e-312 
0.219624 -0.41631 -5.45353e-312 
0.11035 -0.16252 -5.45353e-312 
-0.376378 -0.271697 -5.45353e-312 
1.00746 -0.0409748 -5.45353e-312 
16.0007 -22.0646 -5.45353e-312 
0.137467 -1.95622 -5.45353e-312 
12.786 -2.16915 -5.45353e-312 
5.0636 -10.4654 -5.45353e-312 
17.7366 -22.6384 -5.45353e-312 
9.1017 0.942811 -5.45353e-312 
0.00503551 0.00115707 -5.45353e-312 
6.62912 14.5477 -5.45353e-312 
0.843902 -10.3023 -5.45353e-312 
3.85497 -6.75741 -5.45353e-312 
8.61176 -0.994509 -5.45353e-312 
20.3824 -17.0156 -5.45353e-312 
12.8203 3.37805 -5.45353e-312 
9.24666 -4.58425 -5.45353e-312 
10.8173 17.4196 -5.45353e-312 
8.79585 3.78021 -5.45353e-312 
2.89492 10.1438 -5.45353e-312 
28.0343 -11.7105 -5.45353e-312 
4.73939 -9.25119 -5.45353e-312 
7.30061 -14.132 -5.45353e-312 
19.8327 -22.9481 -5.45353e-312 
-2.19163 6.30365 -5.45353e-312 
19.5938 -23.4783 -5.45353e-312 
12.6037 3.53186 -5.45353e-312 
0.00443037 -0.0157179 -5.45353e-312 
-3.01693 -5.4949 -5.45353e-312 
0.795835 -0.000390191 -5.45353e-312 
0.324971 0.220371 -5.45353e-312 
16.8331 -21.4757 -5.45353e-312 
0.0302488 0.0376962 -5.45353e-312 
15.7042 7.4153 -5.45353e-312 
17.2608 2.51178 -5.45353e-312 
17.346 -0.628155 -5.45353e-312 
1.3658 0.917138 -5.45353e-312 
20.4779 -4.14171 -5.45353e-312 